DF-ISE text

Info {
  version   = 1.0
  type      = xyplot
  datasets  = [
    "time"
    "source OuterVoltage" "source InnerVoltage" "source QuasiFermiPotential" "source DisplacementCurrent" "source eCurrent"
    "source hCurrent" "source TotalCurrent" "source Charge" "gate OuterVoltage" "gate InnerVoltage"
    "gate QuasiFermiPotential" "gate DisplacementCurrent" "gate eCurrent" "gate hCurrent" "gate TotalCurrent"
    "gate Charge" "bulk OuterVoltage" "bulk InnerVoltage" "bulk QuasiFermiPotential" "bulk DisplacementCurrent"
    "bulk eCurrent" "bulk hCurrent" "bulk TotalCurrent" "bulk Charge" "drain OuterVoltage"
    "drain InnerVoltage" "drain QuasiFermiPotential" "drain DisplacementCurrent" "drain eCurrent" "drain hCurrent"
    "drain TotalCurrent" "drain Charge" ]
  functions = [
    Time
    OuterVoltage InnerVoltage QuasiFermiPotential DisplacementCurrent eCurrent
    hCurrent TotalCurrent Charge OuterVoltage InnerVoltage
    QuasiFermiPotential DisplacementCurrent eCurrent hCurrent TotalCurrent
    Charge OuterVoltage InnerVoltage QuasiFermiPotential DisplacementCurrent
    eCurrent hCurrent TotalCurrent Charge OuterVoltage
    InnerVoltage QuasiFermiPotential DisplacementCurrent eCurrent hCurrent
    TotalCurrent Charge ]
}

Data {
      6.25000000000000E-05
      0.00000000000000E+00   2.63439889829405E-12   0.00000000000000E+00  -6.99449482471778E-12  -1.93494941862660E-11
     -1.31027983724287E-21  -2.63439890122940E-11   5.07258250863124E-11   0.00000000000000E+00   0.00000000000000E+00
      0.00000000000000E+00  -1.03669328731971E-10  -4.39935547080912E-15  -2.34626584916271E-18  -1.03673730433708E-10
      7.71924924909380E-11   0.00000000000000E+00   0.00000000000000E+00   0.00000000000000E+00  -2.87453476207552E-17
     -2.02570458164998E-51  -2.39701071449843E-10  -2.39701100195190E-10  -3.89945493846624E-12   1.87500000000000E-02
      1.87499999630281E-02   0.00000000000000E+00   1.72492801683378E-11   3.52469540400980E-10  -9.51280571247198E-19
      3.69718819618037E-10  -1.77376173442082E-10
      1.56250000000000E-04
      0.00000000000000E+00   2.63831363248354E-12   0.00000000000000E+00  -7.00608695444730E-12  -1.93770493898666E-11
     -1.31183829632248E-21  -2.63831363456257E-11   5.07461750111031E-11   0.00000000000000E+00   0.00000000000000E+00
      0.00000000000000E+00  -1.03531666195010E-10  -4.39451346693667E-15  -2.34220237506813E-18  -1.03536063050680E-10
      7.71833647972023E-11   0.00000000000000E+00   0.00000000000000E+00   0.00000000000000E+00   2.13833042912351E-20
     -2.07195757318349E-51  -2.39433594451541E-10  -2.39433594430157E-10  -3.92189146908730E-12   4.68750000000000E-02
      4.68749999630647E-02   0.00000000000000E+00   1.72386001392651E-11   3.52114194652149E-10  -9.50793034598351E-19
      3.69352793840621E-10  -1.77364959142516E-10
      2.96875000000000E-04
      0.00000000000000E+00   2.64429955019801E-12   0.00000000000000E+00  -7.02382105821108E-12  -1.94191743717258E-11
     -1.31424084769817E-21  -2.64429954312511E-11   5.07767161873381E-11   0.00000000000000E+00   0.00000000000000E+00
      0.00000000000000E+00  -1.03321063673251E-10  -4.38706985435876E-15  -2.33595154605371E-18  -1.03325453079057E-10
      7.71696158390412E-11   0.00000000000000E+00   0.00000000000000E+00   0.00000000000000E+00   2.20201951671119E-20
     -2.13811542347541E-51  -2.39020429178167E-10  -2.39020429156147E-10  -3.95548933116413E-12   8.90625000000000E-02
      8.90624999631211E-02   0.00000000000000E+00   1.72222214468930E-11   3.51566657207997E-10  -9.50020604304357E-19
      3.68788877704869E-10  -1.77348153498513E-10
      5.07812500000000E-04
      0.00000000000000E+00   2.65354020870631E-12   0.00000000000000E+00  -7.05125194171751E-12  -1.94841501222227E-11
     -1.31794693349706E-21  -2.65354020652582E-11   5.08225690040053E-11   0.00000000000000E+00   0.00000000000000E+00
      0.00000000000000E+00  -1.02984128777867E-10  -4.37507460074514E-15  -2.32635332079054E-18  -1.02988506178821E-10
      7.71488549182731E-11   0.00000000000000E+00   0.00000000000000E+00   0.00000000000000E+00   2.30269353057639E-20
     -2.23278092676444E-51  -2.38372347555902E-10  -2.38372347532876E-10  -4.00575182026681E-12   1.52343750000000E-01
      1.52343749963210E-01   0.00000000000000E+00   1.71968348512330E-11   3.50699421642719E-10  -9.48733242325747E-19
      3.67896255545218E-10  -1.77322982905309E-10
      8.24218750000000E-04
      0.00000000000000E+00   2.66805606812879E-12   0.00000000000000E+00  -7.09450580367192E-12  -1.95860549016586E-11
     -1.32376338387677E-21  -2.66805607066543E-11   5.08914610772893E-11   0.00000000000000E+00   0.00000000000000E+00
      0.00000000000000E+00  -1.02418932730814E-10  -4.35401026137192E-15  -2.31013450243349E-18  -1.02423289051210E-10
      7.71173692396214E-11   0.00000000000000E+00   0.00000000000000E+00   0.00000000000000E+00   2.46793338285423E-20
     -2.36210599567965E-51  -2.37330467542071E-10  -2.37330467517392E-10  -4.08082060753309E-12   2.47265625000000E-01
      2.47265624963357E-01   0.00000000000000E+00   1.71568317862740E-11   3.49277486208504E-10  -9.46463334125985E-19
      3.66434317048315E-10  -1.77285320512675E-10
      1.29882812500000E-03
      0.00000000000000E+00   2.69226540485006E-12   0.00000000000000E+00  -7.16549190370041E-12  -1.97571621909755E-11
     -1.33371954058864E-21  -2.69226540960097E-11   5.09949141150594E-11   0.00000000000000E+00   0.00000000000000E+00
      0.00000000000000E+00  -1.01741672801738E-10  -4.33008645026786E-15  -2.28944471297849E-18  -1.01746005177633E-10
      7.70694555579880E-11   0.00000000000000E+00   0.00000000000000E+00   0.00000000000000E+00   2.72990516324275E-20
     -2.52127446533364E-51  -2.35601756847804E-10  -2.35601756820505E-10  -4.19261192605883E-12   3.89648437500000E-01
      3.89648437463573E-01   0.00000000000000E+00   1.70924162900323E-11   3.47178000413839E-10  -9.43122262036012E-19
      3.64270415760749E-10  -1.77229068550286E-10
      2.01074218750000E-03
      0.00000000000000E+00   2.73704762136888E-12   0.00000000000000E+00  -7.29150781262376E-12  -2.00789683713732E-11
     -1.35296613185036E-21  -2.73704761853499E-11   5.11493127008086E-11   0.00000000000000E+00   0.00000000000000E+00
      0.00000000000000E+00  -1.01702541990038E-10  -4.33774975973418E-15  -2.28194719874584E-18  -1.01706882021745E-10
      7.69969126369560E-11   0.00000000000000E+00   0.00000000000000E+00   0.00000000000000E+00   3.14864115252212E-20
     -2.67094771285074E-51  -2.32610951452831E-10  -2.32610951421345E-10  -4.35818373769272E-12   6.03222656250000E-01
      6.03222656213831E-01   0.00000000000000E+00   1.69970081440840E-11   3.44691302564079E-10  -9.39855662577933E-19
      3.61688309768307E-10  -1.77145352403370E-10
      2.54467773437500E-03
      0.00000000000000E+00   2.79807024455331E-12   0.00000000000000E+00  -7.46094977780345E-12  -2.05197526951563E-11
     -1.38071082588450E-21  -2.79807024743405E-11   5.12641726314986E-11   0.00000000000000E+00   0.00000000000000E+00
      0.00000000000000E+00  -1.02191769609575E-10  -4.37021401997516E-15  -2.29064944079828E-18  -1.02196142114244E-10
      7.69421890885870E-11   0.00000000000000E+00   0.00000000000000E+00   0.00000000000000E+00   4.93238423137066E-20
     -3.04944063142783E-51  -2.29097139844939E-10  -2.29097139795616E-10  -4.48049393818833E-12   7.63403320312500E-01
      7.63403320276573E-01   0.00000000000000E+00   1.69925020290111E-11   3.42281483255757E-10  -9.35882315634871E-19
      3.59273984348886E-10  -1.77083178585195E-10
      2.94512939453125E-03
      0.00000000000000E+00   2.86335845321533E-12   0.00000000000000E+00  -7.64199253560695E-12  -2.09915919258367E-11
     -1.41093589020900E-21  -2.86335844628546E-11   5.13499844097044E-11   0.00000000000000E+00   0.00000000000000E+00
      0.00000000000000E+00  -1.02795100193405E-10  -4.40549689045717E-15  -2.30249567547372E-18  -1.02799507992791E-10
      7.69009013594350E-11   0.00000000000000E+00   0.00000000000000E+00   0.00000000000000E+00   4.27501835019871E-20
     -3.33671726584777E-51  -2.26812997834802E-10  -2.26812997792052E-10  -4.57131473054440E-12   8.83538818359375E-01
      8.83538818323550E-01   0.00000000000000E+00   1.73185700066747E-11   3.40927521155057E-10  -9.34139381373198E-19
      3.58246090227593E-10  -1.77036881841893E-10
      3.24546813964844E-03
      0.00000000000000E+00   2.93573324733092E-12   0.00000000000000E+00  -7.84257693208041E-12  -2.15147555187531E-11
     -1.44489972286203E-21  -2.93573324522784E-11   5.14144958919243E-11   0.00000000000000E+00   0.00000000000000E+00
      0.00000000000000E+00  -1.03511339338552E-10  -4.44438041606522E-15  -2.31868525922028E-18  -1.03515786037654E-10
      7.68697188094797E-11   0.00000000000000E+00   0.00000000000000E+00   0.00000000000000E+00   1.43065189538737E-20
     -3.56925752136864E-51  -2.26239664432676E-10  -2.26239664418370E-10  -4.63925929459071E-12   9.73640441894531E-01
      9.73640441858620E-01   0.00000000000000E+00   1.80031370235098E-11   3.41109646227808E-10  -9.36141452397389E-19
      3.59112782315177E-10  -1.77002266210111E-10
      3.69597625732422E-03
      0.00000000000000E+00   3.05293540385697E-12   0.00000000000000E+00  -8.16716701195034E-12  -2.23621870879444E-11
     -1.49983855150652E-21  -3.05293541013945E-11   5.15124819467517E-11   0.00000000000000E+00   0.00000000000000E+00
      0.00000000000000E+00  -1.04746355553905E-10  -4.50689239304966E-15  -2.34319903059799E-18  -1.04750864789497E-10
      7.68223850273478E-11   0.00000000000000E+00   0.00000000000000E+00   0.00000000000000E+00  -2.95292891362721E-20
     -3.55536159968094E-51  -2.28014498141694E-10  -2.28014498171223E-10  -4.74197710884906E-12   1.10879287719727E+00
      1.10879287716094E+00   0.00000000000000E+00   1.91093838230431E-11   3.44185333774525E-10  -9.46954293308028E-19
      3.63294716650614E-10  -1.76950200668548E-10
      4.03385734558106E-03
      0.00000000000000E+00   3.21745019773047E-12   0.00000000000000E+00  -8.62257973017033E-12  -2.35519222367251E-11
     -1.57800609108226E-21  -3.21745019684734E-11   5.15876692458398E-11   0.00000000000000E+00   0.00000000000000E+00
      0.00000000000000E+00  -1.06546099009483E-10  -4.59568395110668E-15  -2.38286936594970E-18  -1.06550697076303E-10
      7.67862729420334E-11   0.00000000000000E+00   0.00000000000000E+00   0.00000000000000E+00  -9.88460598874150E-20
     -3.87657907804443E-51  -2.32470435647111E-10  -2.32470435745957E-10  -4.82052188409618E-12   1.21015720367432E+00
      1.21015720363720E+00   0.00000000000000E+00   2.01721630589298E-11   3.51023472753855E-10  -9.67674530319208E-19
      3.71195634845111E-10  -1.76910731107075E-10
      4.28726816177368E-03
      0.00000000000000E+00   3.35427884489836E-12   0.00000000000000E+00  -9.00131053484900E-12  -2.45414779451480E-11
     -1.64298173602557E-21  -3.35427884816400E-11   5.16451636908699E-11   0.00000000000000E+00   0.00000000000000E+00
      0.00000000000000E+00  -1.08049100431791E-10  -4.66987757949299E-15  -2.41693866471293E-18  -1.08053772726309E-10
      7.67588057337517E-11   0.00000000000000E+00   0.00000000000000E+00   0.00000000000000E+00  -1.24208734610667E-19
     -4.14975850547265E-51  -2.36669902287201E-10  -2.36669902411409E-10  -4.88049502965139E-12   1.28618044853210E+00
      1.28618044849428E+00   0.00000000000000E+00   2.06919755553544E-11   3.57574488846265E-10  -9.87237099108433E-19
      3.78266463414382E-10  -1.76880785198268E-10
      4.66738438606262E-03
      0.00000000000000E+00   3.48848546782030E-12   0.00000000000000E+00  -9.37307364718100E-12  -2.55117810524019E-11
     -1.70579520735684E-21  -3.48848547012887E-11   5.17329006379481E-11   0.00000000000000E+00   0.00000000000000E+00
      0.00000000000000E+00  -1.09438220294815E-10  -4.73922099256219E-15  -2.44509494582705E-18  -1.09442961960903E-10
      7.67170735554926E-11   0.00000000000000E+00   0.00000000000000E+00   0.00000000000000E+00  -7.78593224444601E-20
     -4.11197320853197E-51  -2.40618473468471E-10  -2.40618473546331E-10  -4.97195615898007E-12   1.40021531581879E+00
      1.40021531578029E+00   0.00000000000000E+00   2.09994483858437E-11   3.63946842874968E-10  -1.00718229621254E-18
      3.84946290253629E-10  -1.76835328837758E-10
      4.95247155427933E-03
      0.00000000000000E+00   3.60431121607324E-12   0.00000000000000E+00  -9.69468913320013E-12  -2.63484229867229E-11
     -1.76001588268688E-21  -3.60431121216831E-11   5.17995350165476E-11   0.00000000000000E+00   0.00000000000000E+00
      0.00000000000000E+00  -1.10439826140972E-10  -4.79195785620045E-15  -2.46728417320771E-18  -1.10444620566113E-10
      7.66854867501110E-11   0.00000000000000E+00   0.00000000000000E+00   0.00000000000000E+00  -8.23687815484871E-20
     -4.40036457733338E-51  -2.43751421346250E-10  -2.43751421428618E-10  -5.04144549129878E-12   1.48574146628380E+00
      1.48574146624477E+00   0.00000000000000E+00   2.11758671338097E-11   3.69063288001473E-10  -1.02316242016875E-18
      3.90239154112121E-10  -1.76800887078658E-10
      5.38010230660439E-03
      0.00000000000000E+00   3.69551256806376E-12   0.00000000000000E+00  -9.94914092952678E-12  -2.70059847447407E-11
     -1.80123515513950E-21  -3.69551256760687E-11   5.19002517912590E-11   0.00000000000000E+00   0.00000000000000E+00
      0.00000000000000E+00  -1.10913568879024E-10  -4.82058136869002E-15  -2.47336242447148E-18  -1.10918391933755E-10
      7.66379015455785E-11   0.00000000000000E+00   0.00000000000000E+00   0.00000000000000E+00  -4.00781189735807E-20
     -4.28587618041511E-51  -2.46037955364627E-10  -2.46037955404705E-10  -5.14665768530090E-12   1.61403069198132E+00
      1.61403069194192E+00   0.00000000000000E+00   2.12772779139270E-11   3.72634196169488E-10  -1.03585690571858E-18
      3.93911473047559E-10  -1.76748806454834E-10
      6.02154843509197E-03
      0.00000000000000E+00   3.78743356513872E-12   0.00000000000000E+00  -1.02056867581679E-11  -2.76686488793124E-11
     -1.84117568115470E-21  -3.78743356393215E-11   5.20523801146067E-11   0.00000000000000E+00   0.00000000000000E+00
      0.00000000000000E+00  -1.11300794383727E-10  -4.84938621608883E-15  -2.47598106237696E-18  -1.11305646245924E-10
      7.65662712964425E-11   0.00000000000000E+00   0.00000000000000E+00   0.00000000000000E+00  -2.66472644582927E-20
     -4.07921704216018E-51  -2.48318299050138E-10  -2.48318299076785E-10  -5.30593934458915E-12   1.80646453052759E+00
      1.80646453048784E+00   0.00000000000000E+00   2.13697978380759E-11   3.76128484430836E-10  -1.04986275657875E-18
      3.97498281219049E-10  -1.76670022869758E-10
      6.98371762782335E-03
      0.00000000000000E+00   3.86802940918035E-12   0.00000000000000E+00  -1.04296988147995E-11  -2.82505952872363E-11
     -1.87325226404469E-21  -3.86802941039091E-11   5.22819833309522E-11   0.00000000000000E+00   0.00000000000000E+00
      0.00000000000000E+00  -1.11705715261821E-10  -4.88452688641830E-15  -2.47534174085058E-18  -1.11710602264049E-10
      7.64584293017934E-11   0.00000000000000E+00   0.00000000000000E+00   0.00000000000000E+00  -1.57313162663936E-20
     -3.74277819574066E-51  -2.50337455221385E-10  -2.50337455237117E-10  -5.54680546816306E-12   2.09511528834701E+00
      2.09511528830693E+00   0.00000000000000E+00   2.14544376570601E-11   3.79273914855392E-10  -1.06523339944810E-18
      4.00728351447219E-10  -1.76550917967880E-10
      7.70534452237189E-03
      0.00000000000000E+00   3.91902893289927E-12   0.00000000000000E+00  -1.05731619619613E-11  -2.86171273934162E-11
     -1.89247437807463E-21  -3.91902893572700E-11   5.24542803782481E-11   0.00000000000000E+00   0.00000000000000E+00
      0.00000000000000E+00  -1.11410415649705E-10  -4.88824298061483E-15  -2.46299962769265E-18  -1.11415306355685E-10
      7.63777573996778E-11   0.00000000000000E+00   0.00000000000000E+00   0.00000000000000E+00  -1.04215940930206E-20
     -4.27472488174254E-51  -2.51340559463473E-10  -2.51340559473895E-10  -5.72817928229837E-12   2.31160335671157E+00
      2.31160335667137E+00   0.00000000000000E+00   2.15000871702382E-11   3.80446069281529E-10  -1.07354151281425E-18
      4.01946155378226E-10  -1.76461169298925E-10
      8.24656469328329E-03
      0.00000000000000E+00   3.94629377178929E-12   0.00000000000000E+00  -1.06518701243761E-11  -2.88110675607720E-11
     -1.90144672434730E-21  -3.94629376870495E-11   5.25830662017593E-11   0.00000000000000E+00   0.00000000000000E+00
      0.00000000000000E+00  -1.10685967442165E-10  -4.86804269330548E-15  -2.44308939766162E-18  -1.10690837927948E-10
      7.63176444698989E-11   0.00000000000000E+00   0.00000000000000E+00   0.00000000000000E+00  -1.81699155058523E-21
     -4.76365065959556E-51  -2.51471520393976E-10  -2.51471520395793E-10  -5.86428062272984E-12   2.47396940798499E+00
      2.47396940794482E+00   0.00000000000000E+00   2.15071262251944E-11   3.80118170769349E-10  -1.07639975006186E-18
      4.01625295918144E-10  -1.76393740852226E-10
      8.65247982146684E-03
      0.00000000000000E+00   3.96338287782984E-12   0.00000000000000E+00  -1.07031944409070E-11  -2.89306343762738E-11
     -1.90641115932746E-21  -3.96338288190872E-11   5.26791564423032E-11   0.00000000000000E+00   0.00000000000000E+00
      0.00000000000000E+00  -1.09719986755343E-10  -4.83253922683964E-15  -2.41684431080758E-18  -1.09724821711414E-10
      7.62729517500890E-11   0.00000000000000E+00   0.00000000000000E+00   0.00000000000000E+00   3.78199758314013E-21
     -5.19919037914737E-51  -2.51266494570728E-10  -2.51266494566946E-10  -5.96627343863538E-12   2.59574394644005E+00
      2.59574394639999E+00   0.00000000000000E+00   2.14994303329778E-11   3.79125716104392E-10  -1.07643110437460E-18
      4.00625145360939E-10  -1.76343145557055E-10
      8.95691616760450E-03
      0.00000000000000E+00   3.97478261938325E-12   0.00000000000000E+00  -1.07390865931324E-11  -2.90087395794644E-11
     -1.90936114877256E-21  -3.97478261745061E-11   5.27508097320052E-11   0.00000000000000E+00   0.00000000000000E+00
      0.00000000000000E+00  -1.08664322841588E-10  -4.79137627099343E-15  -2.39130367294372E-18  -1.08669116609163E-10
      7.62397537937568E-11   0.00000000000000E+00   0.00000000000000E+00   0.00000000000000E+00   7.72874706723104E-21
     -5.57477377194368E-51  -2.50952403370640E-10  -2.50952403362912E-10  -6.04267244245916E-12   2.68707485028135E+00
      2.68707485024141E+00   0.00000000000000E+00   2.14875393447807E-11   3.77881807784957E-10  -1.07502930341601E-18
      3.99369346054709E-10  -1.76305201886601E-10
      9.41357068681100E-03
      0.00000000000000E+00   3.98734503701425E-12   0.00000000000000E+00  -1.07769061202180E-11  -2.90965442356483E-11
     -1.91184168101737E-21  -3.98734503577782E-11   5.28577534262724E-11   0.00000000000000E+00   0.00000000000000E+00
      0.00000000000000E+00  -1.07885084929631E-10  -4.76253460031137E-15  -2.36822240199955E-18  -1.07889849832454E-10
      7.61903126461081E-11   0.00000000000000E+00   0.00000000000000E+00   0.00000000000000E+00   7.61386472384764E-21
     -5.28877505189048E-51  -2.50488243362603E-10  -2.50488243354989E-10  -6.15705900143060E-12   2.82407120604330E+00
      2.82407120600347E+00   0.00000000000000E+00   2.14681375093136E-11   3.76783407404842E-10  -1.07509792814209E-18
      3.98251543839058E-10  -1.76248317874248E-10
      1.00985524656207E-02
      0.00000000000000E+00   4.00800711300676E-12   0.00000000000000E+00  -1.08341655317464E-11  -2.92459055938944E-11
     -1.91665564077882E-21  -4.00800711275575E-11   5.30175924092124E-11   0.00000000000000E+00   0.00000000000000E+00
      0.00000000000000E+00  -1.07728892670741E-10  -4.76648666806053E-15  -2.35808881335595E-18  -1.07733661515497E-10
      7.61162560722935E-11   0.00000000000000E+00   0.00000000000000E+00   0.00000000000000E+00   9.82831578145344E-21
     -4.87968349397135E-51  -2.49589565357236E-10  -2.49589565347408E-10  -6.32802328165581E-12   3.02956573968622E+00
      3.02956573964648E+00   0.00000000000000E+00   2.14294405092723E-11   3.75973858631235E-10  -1.07758211740249E-18
      3.97403298062925E-10  -1.76163136003148E-10
      1.11260251338354E-02
      0.00000000000000E+00   4.03979259098778E-12   0.00000000000000E+00  -1.09199650555737E-11  -2.94779608298765E-11
     -1.92428073681745E-21  -4.03979258873745E-11   5.32562788938489E-11   0.00000000000000E+00   0.00000000000000E+00
      0.00000000000000E+00  -1.07929738088664E-10  -4.79163825869727E-15  -2.35097840438391E-18  -1.07934532077902E-10
      7.60049596281538E-11   0.00000000000000E+00   0.00000000000000E+00   0.00000000000000E+00   1.27312465634440E-20
     -4.30599576507591E-51  -2.47843443503844E-10  -2.47843443491113E-10  -6.58267563151939E-12   3.33780754015061E+00
      3.33780754011099E+00   0.00000000000000E+00   2.13886190581961E-11   3.74787284459653E-10  -1.08137300075271E-18
      3.96175902436476E-10  -1.76035873693781E-10
      1.18966296349963E-02
      0.00000000000000E+00   4.07345093718814E-12   0.00000000000000E+00  -1.10104604761608E-11  -2.97240488834336E-11
     -1.93458400451005E-21  -4.07345093615290E-11   5.34343881378793E-11   0.00000000000000E+00   0.00000000000000E+00
      0.00000000000000E+00  -1.08085954897020E-10  -4.81740314023705E-15  -2.35117472012140E-18  -1.08090774651335E-10
      7.59213629419556E-11   0.00000000000000E+00   0.00000000000000E+00   0.00000000000000E+00   1.93183856049901E-20
     -5.09731590487020E-51  -2.45856461258523E-10  -2.45856461239204E-10  -6.77213372362713E-12   3.56898889049890E+00
      3.56898889045943E+00   0.00000000000000E+00   2.15468318137419E-11   3.73134914114423E-10  -1.08186881598874E-18
      3.94681744846296E-10  -1.75940928159506E-10
      1.24745830108670E-02
      0.00000000000000E+00   4.10371670537120E-12   0.00000000000000E+00  -1.10920814263284E-11  -2.99450856560654E-11
     -1.94460242828054E-21  -4.10371670843385E-11   5.35677636126392E-11   0.00000000000000E+00   0.00000000000000E+00
      0.00000000000000E+00  -1.08152192247756E-10  -4.83336518472481E-15  -2.34770084346512E-18  -1.08157027960642E-10
      7.58586249085902E-11   0.00000000000000E+00   0.00000000000000E+00   0.00000000000000E+00   1.23777797626167E-20
     -5.85534008484018E-51  -2.44901337468108E-10  -2.44901337455730E-10  -6.91367527725496E-12   3.74237490326011E+00
      3.74237490322070E+00   0.00000000000000E+00   2.21602087193621E-11   3.71935325000211E-10  -1.08058439215367E-18
      3.94095532638989E-10  -1.75870024047272E-10
      1.29080480427701E-02
      0.00000000000000E+00   4.15128228378343E-12   0.00000000000000E+00  -1.12216342655275E-11  -3.02911885743636E-11
     -1.96373526065633E-21  -4.15128228418548E-11   5.36686292903882E-11   0.00000000000000E+00   0.00000000000000E+00
      0.00000000000000E+00  -1.08462759048079E-10  -4.85790427286308E-15  -2.35139003823295E-18  -1.08467619303742E-10
      7.58114348570257E-11   0.00000000000000E+00   0.00000000000000E+00   0.00000000000000E+00  -1.87536684331566E-20
     -6.56451075479010E-51  -2.45985372991143E-10  -2.45985373009896E-10  -7.02030133439413E-12   3.87241441283102E+00
      3.87241441279143E+00   0.00000000000000E+00   2.29990118263992E-11   3.72966804546444E-10  -1.07472750078505E-18
      3.95965815298116E-10  -1.75817073616318E-10
      1.32331468166974E-02
      0.00000000000000E+00   4.26141000058437E-12   0.00000000000000E+00  -1.15233242719978E-11  -3.10907757475320E-11
     -2.01292627033336E-21  -4.26141000215427E-11   5.37467569152863E-11   0.00000000000000E+00   0.00000000000000E+00
      0.00000000000000E+00  -1.09711577428059E-10  -4.92491086260014E-15  -2.37816290967353E-18  -1.09716504717085E-10
      7.57756335805945E-11   0.00000000000000E+00   0.00000000000000E+00   0.00000000000000E+00  -1.26253594426205E-19
     -7.28067367402100E-51  -2.51461154215820E-10  -2.51461154342074E-10  -7.10205104717354E-12   3.96994404500921E+00
      3.96994404496883E+00   0.00000000000000E+00   2.34410073378198E-11   3.80350752602095E-10  -1.05577236736395E-18
      4.03791758884143E-10  -1.75777650252005E-10
      1.34769708971428E-02
      0.00000000000000E+00   4.48298135420811E-12   0.00000000000000E+00  -1.21312902164923E-11  -3.26985233476571E-11
     -2.11484394027233E-21  -4.48298135662642E-11   5.38095208272209E-11   0.00000000000000E+00   0.00000000000000E+00
      0.00000000000000E+00  -1.12616765702078E-10  -5.06876202755665E-15  -2.44320697938353E-18  -1.12621836907313E-10
      7.57480703175884E-11   0.00000000000000E+00   0.00000000000000E+00   0.00000000000000E+00  -3.84309390119030E-19
     -8.10690170220309E-51  -2.63962801481247E-10  -2.63962801865556E-10  -7.16641153451359E-12   4.04309126914285E+00
      4.04309126910070E+00   0.00000000000000E+00   2.30589076954931E-11   3.98355545822833E-10  -1.01374047014916E-18
      4.21414452504586E-10  -1.75748490413594E-10
      1.36598389574769E-02
      0.00000000000000E+00   4.81379406876960E-12   0.00000000000000E+00  -1.30393080012173E-11  -3.50986326963096E-11
     -2.26818419205346E-21  -4.81379406997951E-11   5.38613940016087E-11   0.00000000000000E+00   0.00000000000000E+00
      0.00000000000000E+00  -1.17143677697895E-10  -5.28829954902067E-15  -2.54526073330939E-18  -1.17148968542705E-10
      7.57265656664462E-11   0.00000000000000E+00   0.00000000000000E+00   0.00000000000000E+00  -7.87415073515564E-19
     -9.08531244445939E-51  -2.83174116285805E-10  -2.83174117073221E-10  -7.21819503598440E-12   4.09795168724307E+00
      4.09795168719823E+00   0.00000000000000E+00   2.18658509567964E-11   4.26595176149439E-10  -9.48676224281086E-19
      4.48461026157559E-10  -1.75727075435368E-10
      1.37969900027275E-02
      0.00000000000000E+00   5.19452542574279E-12   0.00000000000000E+00  -1.40843017855054E-11  -3.78609525177694E-11
     -2.44504374018422E-21  -5.19452543057199E-11   5.39044807308189E-11   0.00000000000000E+00   0.00000000000000E+00
      0.00000000000000E+00  -1.22431718757399E-10  -5.54320703781480E-15  -2.66473690191456E-18  -1.22437264629174E-10
      7.57097081474522E-11   0.00000000000000E+00   0.00000000000000E+00   0.00000000000000E+00  -1.21815596864059E-18
     -1.01454136566894E-50  -3.05464599973531E-10  -3.05464601191687E-10  -7.26008982529127E-12   4.13909700081825E+00
      4.13909700077026E+00   0.00000000000000E+00   2.02217433183428E-11   4.59625377259447E-10  -8.72442037970040E-19
      4.79847119705348E-10  -1.75711409856278E-10
      1.38998532866654E-02
      0.00000000000000E+00   5.55957083997110E-12   0.00000000000000E+00  -1.50860716883835E-11  -4.05096366994978E-11
     -2.61468075659080E-21  -5.55957083904960E-11   5.39398138228270E-11   0.00000000000000E+00   0.00000000000000E+00
      0.00000000000000E+00  -1.27530279099589E-10  -5.78852909379670E-15  -2.77977919211049E-18  -1.27536070408462E-10
      7.56965378409215E-11   0.00000000000000E+00   0.00000000000000E+00   0.00000000000000E+00  -1.56122659803925E-18
     -1.11741792783133E-50  -3.26890769346008E-10  -3.26890770907235E-10  -7.29371488345426E-12   4.16995598599962E+00
      4.16995598594862E+00   0.00000000000000E+00   1.85272588793619E-11   4.91495291048449E-10  -7.98555217265129E-19
      5.10022549129256E-10  -1.75699947583592E-10
      1.40541482125723E-02
      0.00000000000000E+00   6.16216152104618E-12   0.00000000000000E+00  -1.67396365308533E-11  -4.48819786891929E-11
     -2.89427060882016E-21  -6.16216152229405E-11   5.40003237680217E-11   0.00000000000000E+00   0.00000000000000E+00
      0.00000000000000E+00  -1.36027659320162E-10  -6.19601612142443E-15  -2.97080722203879E-18  -1.36033858307091E-10
      7.56754645626102E-11   0.00000000000000E+00   0.00000000000000E+00   0.00000000000000E+00  -1.72431256375178E-18
     -1.16787004441098E-50  -3.62387285763776E-10  -3.62387287488089E-10  -7.34962940309938E-12   4.21624446377169E+00
      4.21624446371569E+00   0.00000000000000E+00   1.55682469345010E-11   5.44474514294475E-10  -6.75450052928288E-19
      5.60042760553526E-10  -1.75683469730830E-10
      1.41698694070025E-02
      0.00000000000000E+00   6.63947945291361E-12   0.00000000000000E+00  -1.80482889349513E-11  -4.83465055904370E-11
     -3.11541190561222E-21  -6.63947945285037E-11   5.40501526238245E-11   0.00000000000000E+00   0.00000000000000E+00
      0.00000000000000E+00  -1.42689220506316E-10  -6.51713400748176E-15  -3.12090935717056E-18  -1.42695740761233E-10
      7.56588847060566E-11   0.00000000000000E+00   0.00000000000000E+00   0.00000000000000E+00  -1.81336481752781E-18
     -1.30442736226555E-50  -3.90384574633261E-10  -3.90384576446626E-10  -7.39480517255671E-12   4.25096082210074E+00
      4.25096082204079E+00   0.00000000000000E+00   1.31869716770053E-11   5.86288140291563E-10  -5.76985774147588E-19
      5.99475111391583E-10  -1.75671542960622E-10
      1.43434511986477E-02
      0.00000000000000E+00   7.24395788957255E-12   0.00000000000000E+00  -1.97047784754583E-11  -5.27348004447507E-11
     -3.39414030051458E-21  -7.24395789236032E-11   5.41333623042010E-11   0.00000000000000E+00   0.00000000000000E+00
      0.00000000000000E+00  -1.51145550631456E-10  -6.92536147641846E-15  -3.31074023639434E-18  -1.51152479303672E-10
      7.56325394140899E-11   0.00000000000000E+00   0.00000000000000E+00   0.00000000000000E+00  -1.53351521048161E-18
     -1.31768245960213E-50  -4.25899317003337E-10  -4.25899318536852E-10  -7.46873353931015E-12   4.30303535959432E+00
      4.30303535952937E+00   0.00000000000000E+00   1.00969260709766E-11   6.39394451119658E-10  -4.51386671277734E-19