DF-ISE text

Info {
  version   = 1.0
  type      = xyplot
  datasets  = [
    "time"
    "source OuterVoltage" "source InnerVoltage" "source QuasiFermiPotential" "source DisplacementCurrent" "source eCurrent"
    "source hCurrent" "source TotalCurrent" "source Charge" "gate OuterVoltage" "gate InnerVoltage"
    "gate QuasiFermiPotential" "gate DisplacementCurrent" "gate eCurrent" "gate hCurrent" "gate TotalCurrent"
    "gate Charge" "bulk OuterVoltage" "bulk InnerVoltage" "bulk QuasiFermiPotential" "bulk DisplacementCurrent"
    "bulk eCurrent" "bulk hCurrent" "bulk TotalCurrent" "bulk Charge" "drain OuterVoltage"
    "drain InnerVoltage" "drain QuasiFermiPotential" "drain DisplacementCurrent" "drain eCurrent" "drain hCurrent"
    "drain TotalCurrent" "drain Charge" ]
  functions = [
    Time
    OuterVoltage InnerVoltage QuasiFermiPotential DisplacementCurrent eCurrent
    hCurrent TotalCurrent Charge OuterVoltage InnerVoltage
    QuasiFermiPotential DisplacementCurrent eCurrent hCurrent TotalCurrent
    Charge OuterVoltage InnerVoltage QuasiFermiPotential DisplacementCurrent
    eCurrent hCurrent TotalCurrent Charge OuterVoltage
    InnerVoltage QuasiFermiPotential DisplacementCurrent eCurrent hCurrent
    TotalCurrent Charge ]
}

Data {
      3.12500000000000E-05
      0.00000000000000E+00   2.65182501097040E-12   0.00000000000000E+00  -7.04238030544123E-12  -1.94758698563900E-11
     -1.31893996897381E-21  -2.65182501631502E-11   2.34972462612295E-11   0.00000000000000E+00   0.00000000000000E+00
      0.00000000000000E+00  -1.03955548343367E-10  -4.41207459420967E-15  -2.35396298016583E-18  -1.03959962771925E-10
      7.71955202413782E-11   0.00000000000000E+00   0.00000000000000E+00   0.00000000000000E+00  -5.71873919924177E-17
     -2.29032835972098E-51  -2.38436485644012E-10  -2.38436542831404E-10  -3.97922356212036E-12   9.37500000000000E-03
      9.37499996310853E-03   0.00000000000000E+00   1.72012067509332E-11   3.51713549751813E-10  -9.49082775938732E-19
      3.68914755553663E-10  -1.50070854974551E-10
      7.81250000000000E-05
      0.00000000000000E+00   2.65393219865092E-12   0.00000000000000E+00  -7.04857926294468E-12  -1.94907427171650E-11
     -1.31980376374752E-21  -2.65393219814295E-11   2.35049105262323E-11   0.00000000000000E+00   0.00000000000000E+00
      0.00000000000000E+00  -1.03889418177319E-10  -4.40968242938482E-15  -2.35170208496508E-18  -1.03893830211451E-10
      7.71909528156598E-11   0.00000000000000E+00   0.00000000000000E+00   0.00000000000000E+00   2.30208830359837E-20
     -2.31477219258557E-51  -2.38292505322447E-10  -2.38292505299426E-10  -3.99038931509918E-12   2.34375000000000E-02
      2.34374999631274E-02   0.00000000000000E+00   1.71954663757914E-11   3.51530192126765E-10  -9.48822661373617E-19
      3.68725657553733E-10  -1.50062786060856E-10
      1.48437500000000E-04
      0.00000000000000E+00   2.65712378819583E-12   0.00000000000000E+00  -7.05798197160058E-12  -1.95132558978155E-11
     -1.32109185658822E-21  -2.65712378707371E-11   2.35164127436170E-11   0.00000000000000E+00   0.00000000000000E+00
      0.00000000000000E+00  -1.03789593256459E-10  -4.40621870756761E-15  -2.34871075922919E-18  -1.03794001823877E-10
      7.71840873633461E-11   0.00000000000000E+00   0.00000000000000E+00   0.00000000000000E+00   2.34251586502423E-20
     -2.34702295847675E-51  -2.38072742240347E-10  -2.38072742216921E-10  -4.00712273819888E-12   4.45312500000000E-02
      4.45312499631562E-02   0.00000000000000E+00   1.71867372741158E-11   3.51251245557164E-10  -9.48421471010012E-19
      3.68437981882858E-10  -1.50050689402828E-10
      2.53906250000000E-04
      0.00000000000000E+00   2.66199274877377E-12   0.00000000000000E+00  -7.07232419671450E-12  -1.95476033019404E-11
     -1.32306141856931E-21  -2.66199274999780E-11   2.35336793099301E-11   0.00000000000000E+00   0.00000000000000E+00
      0.00000000000000E+00  -1.03637934029767E-10  -4.40040074231696E-15  -2.34317715238537E-18  -1.03642336773687E-10
      7.71737564347416E-11   0.00000000000000E+00   0.00000000000000E+00   0.00000000000000E+00   2.39754469371312E-20
     -2.39391798831842E-51  -2.37735353965573E-10  -2.37735353941598E-10  -4.03218781693363E-12   7.61718750000000E-02
      7.61718749632002E-02   0.00000000000000E+00   1.71734010367679E-11   3.50824218595874E-10  -9.47795278984591E-19
      3.67997618684847E-10  -1.50032559961801E-10
      4.12109375000000E-04
      0.00000000000000E+00   2.66948131792009E-12   0.00000000000000E+00  -7.09440110301763E-12  -1.96004120338614E-11
     -1.32611673185010E-21  -2.66948131382051E-11   2.35596106690829E-11   0.00000000000000E+00   0.00000000000000E+00
      0.00000000000000E+00  -1.03400855597131E-10  -4.39208438520027E-15  -2.33625909219426E-18  -1.03405250017775E-10
      7.71581831963923E-11   0.00000000000000E+00   0.00000000000000E+00   0.00000000000000E+00   2.48475799086053E-20
     -2.46064429145201E-51  -2.37210862608319E-10  -2.37210862583471E-10  -4.06970356714503E-12   1.23632812500000E-01
      1.23632812463269E-01   0.00000000000000E+00   1.71528336214714E-11   3.50158093507536E-10  -9.46784142712778E-19
      3.67310926182223E-10  -1.50005402332393E-10
      6.49414062500000E-04
      0.00000000000000E+00   2.68114754350613E-12   0.00000000000000E+00  -7.12889147918947E-12  -1.96825839909212E-11
     -1.33087001841335E-21  -2.68114754714415E-11   2.35985891296532E-11   0.00000000000000E+00   0.00000000000000E+00
      0.00000000000000E+00  -1.03010174728246E-10  -4.37873298706771E-15  -2.32649290141377E-18  -1.03014555787726E-10
      7.71346345896699E-11   0.00000000000000E+00   0.00000000000000E+00   0.00000000000000E+00   2.62595628962552E-20
     -2.55173668929543E-51  -2.36379419523036E-10  -2.36379419496776E-10  -4.12578213187781E-12   1.94824218750000E-01
      1.94824218713379E-01   0.00000000000000E+00   1.71206614219607E-11   3.49084789729698E-10  -9.45060467275652E-19
      3.66205450206598E-10  -1.49964753621509E-10
      1.00537109375000E-03
      0.00000000000000E+00   2.69989502296800E-12   0.00000000000000E+00  -7.18423899943820E-12  -1.98147112709412E-11
     -1.33858052043472E-21  -2.69989502717180E-11   2.36572461679801E-11   0.00000000000000E+00   0.00000000000000E+00
      0.00000000000000E+00  -1.02402133634725E-10  -4.35608652521354E-15  -2.30825250892095E-18  -1.02406492029503E-10
      7.70988615690721E-11   0.00000000000000E+00   0.00000000000000E+00   0.00000000000000E+00   2.85443684258549E-20
     -2.66593686817091E-51  -2.35023743140365E-10  -2.35023743111821E-10  -4.20942172121392E-12   3.01611328125000E-01
      3.01611328088557E-01   0.00000000000000E+00   1.70692466759296E-11   3.47359939330417E-10  -9.42147810585612E-19
      3.64429185064199E-10  -1.49903998049901E-10
      1.53930664062500E-03
      0.00000000000000E+00   2.73253975516751E-12   0.00000000000000E+00  -7.27783318163398E-12  -2.00475643679589E-11
     -1.35244868129051E-21  -2.73253975509454E-11   2.37452678742380E-11   0.00000000000000E+00   0.00000000000000E+00
      0.00000000000000E+00  -1.01980835101315E-10  -4.34439284406752E-15  -2.29315342868428E-18  -1.01985181787312E-10
      7.70445136857839E-11   0.00000000000000E+00   0.00000000000000E+00   0.00000000000000E+00   3.21528251102673E-20
     -2.78320547404053E-51  -2.32733165340823E-10  -2.32733165308670E-10  -4.33366567149702E-12   4.61791992187500E-01
      4.61791992151296E-01   0.00000000000000E+00   1.69856008566073E-11   3.45058144601198E-10  -9.38516933771890E-19
      3.62043744519288E-10  -1.49813427922588E-10
      2.34020996093750E-03
      0.00000000000000E+00   2.79482282030813E-12   0.00000000000000E+00  -7.45132225443702E-12  -2.04969060116782E-11
     -1.37983598339204E-21  -2.79482282674951E-11   2.38762698515070E-11   0.00000000000000E+00   0.00000000000000E+00
      0.00000000000000E+00  -1.02347411507629E-10  -4.37214288942193E-15  -2.29517128244415E-18  -1.02351785945690E-10
      7.69623242096823E-11   0.00000000000000E+00   0.00000000000000E+00   0.00000000000000E+00   3.77078550918485E-20
     -2.84298188361675E-51  -2.28703695828358E-10  -2.28703695790651E-10  -4.51681611339341E-12   7.02062988281250E-01
      7.02062988245350E-01   0.00000000000000E+00   1.68835038491658E-11   3.42120206612433E-10  -9.34398084178448E-19
      3.59003709527200E-10  -1.49679089981859E-10
      2.94088745117188E-03
      0.00000000000000E+00   2.88567162742883E-12   0.00000000000000E+00  -7.70319375682273E-12  -2.11535224423666E-11
     -1.42172384782174E-21  -2.88567162006111E-11   2.39736975382141E-11   0.00000000000000E+00   0.00000000000000E+00
      0.00000000000000E+00  -1.03191071564226E-10  -4.42194787020302E-15  -2.31119477671835E-18  -1.03195495823291E-10
      7.69001542352066E-11   0.00000000000000E+00   0.00000000000000E+00   0.00000000000000E+00   5.37210558741136E-20
     -3.20699307236917E-51  -2.24398245292355E-10  -2.24398245238634E-10  -4.65159861041960E-12   8.82266235351563E-01
      8.82266235315918E-01   0.00000000000000E+00   1.70927966444766E-11   3.39357661458531E-10  -9.29749078027000E-19
      3.56450457173259E-10  -1.49579565197064E-10
      3.39139556884766E-03
      0.00000000000000E+00   2.99550070715402E-12   0.00000000000000E+00  -8.00753572215366E-12  -2.19474713816296E-11
     -1.47319796295106E-21  -2.99550071052565E-11   2.40469553523151E-11   0.00000000000000E+00   0.00000000000000E+00
      0.00000000000000E+00  -1.04286997784712E-10  -4.48067815309896E-15  -2.33394775365863E-18  -1.04291480796813E-10
      7.68530291911108E-11   0.00000000000000E+00   0.00000000000000E+00   0.00000000000000E+00   2.12181957851627E-20
     -3.50469817957217E-51  -2.23122801314493E-10  -2.23122801293275E-10  -4.75211293528768E-12   1.01741867065430E+00
      1.01741867061856E+00   0.00000000000000E+00   1.80279848938492E-11   3.39341305308586E-10  -9.31943280969594E-19
      3.57369289270492E-10  -1.49505183642201E-10
      3.72927665710449E-03
      0.00000000000000E+00   3.12306562105809E-12   0.00000000000000E+00  -8.36083502866617E-12  -2.28698212178018E-11
     -1.53357024670586E-21  -3.12306562480015E-11   2.41026608773132E-11   0.00000000000000E+00   0.00000000000000E+00
      0.00000000000000E+00  -1.05631686396343E-10  -4.54861918216761E-15  -2.36301730786832E-18  -1.05636237378542E-10
      7.68172281564461E-11   0.00000000000000E+00   0.00000000000000E+00   0.00000000000000E+00  -4.57122003637463E-20
     -3.77999073583112E-51  -2.25183453030241E-10  -2.25183453075954E-10  -4.82819573135513E-12   1.11878299713135E+00
      1.11878299709514E+00   0.00000000000000E+00   1.91787661175152E-11   3.42871581638136E-10  -9.43412736705565E-19
      3.62050346812238E-10  -1.49449005336467E-10
      3.98268747329712E-03
      0.00000000000000E+00   3.24582670478735E-12   0.00000000000000E+00  -8.70069139218893E-12  -2.37575756620649E-11
     -1.59185462016867E-21  -3.24582670558457E-11   2.41451619968202E-11   0.00000000000000E+00   0.00000000000000E+00
      0.00000000000000E+00  -1.06965572808039E-10  -4.61478077884460E-15  -2.39298552072578E-18  -1.06970189981804E-10
      7.67900373139041E-11   0.00000000000000E+00   0.00000000000000E+00   0.00000000000000E+00  -1.04636777424855E-19
     -4.03102854048721E-51  -2.28721189748380E-10  -2.28721189853017E-10  -4.88615467344801E-12   1.19480624198914E+00
      1.19480624195232E+00   0.00000000000000E+00   1.99625444038785E-11   3.48187103545158E-10  -9.59441334245304E-19
      3.68149646989595E-10  -1.49406356671340E-10
      4.36280369758606E-03
      0.00000000000000E+00   3.38631074140329E-12   0.00000000000000E+00  -9.08960143893709E-12  -2.47735060153013E-11
     -1.65790032910608E-21  -3.38631074558962E-11   2.42102155716734E-11   0.00000000000000E+00   0.00000000000000E+00
      0.00000000000000E+00  -1.08486706455650E-10  -4.69015491109781E-15  -2.42518508180196E-18  -1.08491399035746E-10
      7.67486693391142E-11   0.00000000000000E+00   0.00000000000000E+00   0.00000000000000E+00  -9.32134829444198E-20
     -4.01063279340926E-51  -2.33448453782794E-10  -2.33448453876008E-10  -4.97489044372836E-12   1.30884110927582E+00
      1.30884110923824E+00   0.00000000000000E+00   2.05288746943796E-11   3.55274086890139E-10  -9.81192017766864E-19
      3.75802960603326E-10  -1.49341306501123E-10
      4.64789086580277E-03
      0.00000000000000E+00   3.52080842397479E-12   0.00000000000000E+00  -9.46227066912412E-12  -2.57458135504575E-11
     -1.72133108879961E-21  -3.52080842213030E-11   2.42598923973842E-11   0.00000000000000E+00   0.00000000000000E+00
      0.00000000000000E+00  -1.09853191894877E-10  -4.75957909639236E-15  -2.45651739320757E-18  -1.09857953930491E-10
      7.67172512738753E-11   0.00000000000000E+00   0.00000000000000E+00   0.00000000000000E+00  -1.22081878458633E-19
     -4.31143068820588E-51  -2.38091948737636E-10  -2.38091948859718E-10  -5.04276636559733E-12   1.39436725974083E+00
      1.39436725970251E+00   0.00000000000000E+00   2.08855442987220E-11   3.62272443370790E-10  -1.00226623147894E-18
      3.83157986667246E-10  -1.49291689339725E-10
      5.07552161812782E-03
      0.00000000000000E+00   3.63341768494004E-12   0.00000000000000E+00  -9.77528511402110E-12  -2.65588917250907E-11
     -1.77307026497578E-21  -3.63341768408849E-11   2.43353472842123E-11   0.00000000000000E+00   0.00000000000000E+00
      0.00000000000000E+00  -1.10736636219944E-10  -4.80685828289953E-15  -2.47224686785637E-18  -1.10741445550473E-10
      7.66697433008803E-11   0.00000000000000E+00   0.00000000000000E+00   0.00000000000000E+00  -6.69783223270200E-20
     -4.22614272544912E-51  -2.41913267291480E-10  -2.41913267358459E-10  -5.14621473830794E-12   1.52265648543835E+00
      1.52265648539945E+00   0.00000000000000E+00   2.10900042487835E-11   3.67898886582540E-10  -1.02054578631878E-18
      3.88988889810777E-10  -1.49216187880848E-10
      5.71696774661541E-03
      0.00000000000000E+00   3.74804039043392E-12   0.00000000000000E+00  -1.00955032889141E-11  -2.73849006028681E-11
     -1.82404237475960E-21  -3.74804038936062E-11   2.44496067707954E-11   0.00000000000000E+00   0.00000000000000E+00
      0.00000000000000E+00  -1.11202506111319E-10  -4.83934854396786E-15  -2.47659091719004E-18  -1.11207347936454E-10
      7.65981778850623E-11   0.00000000000000E+00   0.00000000000000E+00   0.00000000000000E+00  -4.47369743786723E-20
     -4.04641893145140E-51  -2.45741767182072E-10  -2.45741767226809E-10  -5.30384369833471E-12   1.71509032398462E+00
      1.71509032394518E+00   0.00000000000000E+00   2.12582424956533E-11   3.73171277436677E-10  -1.03938267571210E-18
      3.94429518892948E-10  -1.49101252991586E-10
      6.19805234298110E-03
      0.00000000000000E+00   3.82494734472160E-12   0.00000000000000E+00  -1.03097725439136E-11  -2.79397009271887E-11
     -1.85773679247428E-21  -3.82494734729601E-11   2.45358453381713E-11   0.00000000000000E+00   0.00000000000000E+00
      0.00000000000000E+00  -1.11567454440212E-10  -4.86740669076585E-15  -2.48169333361367E-18  -1.11572324328596E-10
      7.65443253954979E-11   0.00000000000000E+00   0.00000000000000E+00   0.00000000000000E+00  -3.93929337778527E-20
     -4.45877502929380E-51  -2.48270111034159E-10  -2.48270111073552E-10  -5.42328209875840E-12   1.85941570289433E+00
      1.85941570285452E+00   0.00000000000000E+00   2.13631969427057E-11   3.76728713096201E-10  -1.05252600084209E-18
      3.98091908986380E-10  -1.49014200668974E-10
      6.91967923752964E-03
      0.00000000000000E+00   3.87689346983429E-12   0.00000000000000E+00  -1.04541575911604E-11  -2.83147770806792E-11
     -1.87768091567471E-21  -3.87689346737172E-11   2.46656790003928E-11   0.00000000000000E+00   0.00000000000000E+00
      0.00000000000000E+00  -1.11788519338149E-10  -4.88979316956206E-15  -2.47868156634642E-18  -1.11793411610000E-10
      7.64633835157412E-11   0.00000000000000E+00   0.00000000000000E+00   0.00000000000000E+00  -1.61212279406901E-20
     -4.16834394820405E-51  -2.49822003021756E-10  -2.49822003037877E-10  -5.60355991173183E-12   2.07590377125889E+00
      2.07590377121885E+00   0.00000000000000E+00   2.14300864339400E-11   3.78954264187792E-10  -1.06367913611894E-18
      4.00384349558053E-10  -1.48882814638465E-10
      7.46089940844104E-03
      0.00000000000000E+00   3.91549347222620E-12   0.00000000000000E+00  -1.05626123609026E-11  -2.85923223410012E-11
     -1.89227612450052E-21  -3.91549347037961E-11   2.47630455432280E-11   0.00000000000000E+00   0.00000000000000E+00
      0.00000000000000E+00  -1.11596397229197E-10  -4.89412649205781E-15  -2.47076032328595E-18  -1.11601293826449E-10
      7.64027790678953E-11   0.00000000000000E+00   0.00000000000000E+00   0.00000000000000E+00  -1.18795663815488E-20
     -4.63766017097355E-51  -2.50679605858303E-10  -2.50679605870183E-10  -5.73923257950323E-12   2.23826982253231E+00
      2.23826982249217E+00   0.00000000000000E+00   2.14691805543127E-11   3.79966654525124E-10  -1.07026544407498E-18
      4.01435834009172E-10  -1.48783904065683E-10
      7.86681453662459E-03
      0.00000000000000E+00   3.93805029087998E-12   0.00000000000000E+00  -1.06270955138596E-11  -2.87534073990808E-11
     -1.90004320153265E-21  -3.93805029148404E-11   2.48358829135666E-11   0.00000000000000E+00   0.00000000000000E+00
      0.00000000000000E+00  -1.11170638971294E-10  -4.88462770096732E-15  -2.45839031540056E-18  -1.11175526057385E-10
      7.63574977896586E-11   0.00000000000000E+00   0.00000000000000E+00   0.00000000000000E+00  -4.09521847793208E-21
     -5.05058619007393E-51  -2.50901210790329E-10  -2.50901210794425E-10  -5.84107708605082E-12   2.36004436098738E+00
      2.36004436094723E+00   0.00000000000000E+00   2.14800685264476E-11   3.79977171943886E-10  -1.07311865357266E-18
      4.01457239397215E-10  -1.48709615651238E-10
      8.47568722889992E-03
      0.00000000000000E+00   3.95861513306521E-12   0.00000000000000E+00  -1.06872466978971E-11  -2.88989046454060E-11
     -1.90529967221853E-21  -3.95861513452084E-11   2.49445686445543E-11   0.00000000000000E+00   0.00000000000000E+00
      0.00000000000000E+00  -1.10415168735927E-10  -4.85961880540140E-15  -2.43336753413250E-18  -1.10420030788100E-10
      7.62900351718861E-11   0.00000000000000E+00   0.00000000000000E+00   0.00000000000000E+00   1.29362004900771E-21
     -4.72612802607146E-51  -2.50795817869418E-10  -2.50795817868125E-10  -5.99377972791857E-12   2.54270616866997E+00
      2.54270616862989E+00   0.00000000000000E+00   2.14763594509022E-11   3.79325641879004E-10  -1.07552662146111E-18
      4.00802000254380E-10  -1.48598136122585E-10
      8.70401448850316E-03
      0.00000000000000E+00   3.97365705957886E-12   0.00000000000000E+00  -1.07330502656466E-11  -2.90035203322173E-11
     -1.91054151372537E-21  -3.97365705997745E-11   2.49850424607079E-11   0.00000000000000E+00   0.00000000000000E+00
      0.00000000000000E+00  -1.09414249033703E-10  -4.82217410717160E-15  -2.41099497087596E-18  -1.09419073618806E-10
      7.62649652493500E-11   0.00000000000000E+00   0.00000000000000E+00   0.00000000000000E+00   9.65699447149281E-21
     -5.80863860098744E-51  -2.50501506431359E-10  -2.50501506421702E-10  -6.05097603032095E-12   2.61120434655095E+00
      2.61120434651098E+00   0.00000000000000E+00   2.14648714448458E-11   3.78192279906325E-10  -1.07390666238295E-18
      3.99657150277265E-10  -1.48556343713800E-10
      9.04650537790803E-03
      0.00000000000000E+00   3.98312469013775E-12   0.00000000000000E+00  -1.07627547083593E-11  -2.90684922248010E-11
     -1.91234573579324E-21  -3.98312469350726E-11   2.50453873837506E-11   0.00000000000000E+00   0.00000000000000E+00
      0.00000000000000E+00  -1.08560449377926E-10  -4.78817145041280E-15  -2.38706498539649E-18  -1.08565239936442E-10
      7.62276529707587E-11   0.00000000000000E+00   0.00000000000000E+00   0.00000000000000E+00   7.04107433961849E-21
     -5.58363786107780E-51  -2.50179561701999E-10  -2.50179561694958E-10  -6.13666022844681E-12   2.71395161337241E+00
      2.71395161333255E+00   0.00000000000000E+00   2.14521980266686E-11   3.77123851896271E-10  -1.07326102626433E-18
      3.98576048849679E-10  -1.48493692160126E-10
      9.56024171201534E-03
      0.00000000000000E+00   3.99826520793264E-12   0.00000000000000E+00  -1.08072138511617E-11  -2.91754381840602E-11
     -1.91565044141777E-21  -3.99826520371376E-11   2.51353788263307E-11   0.00000000000000E+00   0.00000000000000E+00
      0.00000000000000E+00  -1.07887333440657E-10  -4.76549735143032E-15  -2.36673412191317E-18  -1.07892101304742E-10
      7.61720300162246E-11   0.00000000000000E+00   0.00000000000000E+00   0.00000000000000E+00   8.85790744195752E-21
     -5.25711500989143E-51  -2.49572081785466E-10  -2.49572081776608E-10  -6.26487445329011E-12   2.86807251360460E+00
      2.86807251356486E+00   0.00000000000000E+00   2.14258757145270E-11   3.76020960339776E-10  -1.07370316925859E-18
      3.97446834980600E-10  -1.48399846423328E-10
      1.03308462131763E-02
      0.00000000000000E+00   4.02266236220507E-12   0.00000000000000E+00  -1.08740621847995E-11  -2.93525614767017E-11
     -1.92161479655411E-21  -4.02266236634229E-11   2.52699066222188E-11   0.00000000000000E+00   0.00000000000000E+00
      0.00000000000000E+00  -1.07878053690551E-10  -4.77739086934077E-15  -2.35843482459587E-18  -1.07882833439856E-10
      7.60886000635467E-11   0.00000000000000E+00   0.00000000000000E+00   0.00000000000000E+00   1.12639367984788E-20
     -4.79063356569198E-51  -2.48413405812641E-10  -2.48413405801377E-10  -6.45630292574326E-12   3.09925386395289E+00
      3.09925386391324E+00   0.00000000000000E+00   2.13770069857251E-11   3.75145857103406E-10  -1.07657916723328E-18
      3.96522863012552E-10  -1.48259515794085E-10
      1.14867529649177E-02
      0.00000000000000E+00   4.05890932844275E-12   0.00000000000000E+00  -1.09717009892741E-11  -2.96173922649343E-11
     -1.93035612854667E-21  -4.05890932561388E-11   2.54708331672399E-11   0.00000000000000E+00   0.00000000000000E+00
      0.00000000000000E+00  -1.08110340095903E-10  -4.80670827425879E-15  -2.35189186671401E-18  -1.08115149156069E-10
      7.59631799999638E-11   0.00000000000000E+00   0.00000000000000E+00   0.00000000000000E+00   1.36483220679173E-20
     -4.13927608996987E-51  -2.46307455106613E-10  -2.46307455092964E-10  -6.74101136785395E-12   3.44602588947532E+00
      3.44602588943582E+00   0.00000000000000E+00   2.13577971215827E-11   3.73653902107998E-10  -1.08034413253418E-18
      3.95011698149237E-10  -1.48050313833413E-10
      1.23536830287238E-02
      0.00000000000000E+00   4.09780852173418E-12   0.00000000000000E+00  -1.10762241599778E-11  -2.99018609907335E-11
     -1.94236031130962E-21  -4.09780851526536E-11   2.56209969819087E-11   0.00000000000000E+00   0.00000000000000E+00
      0.00000000000000E+00  -1.08228424542796E-10  -4.83252316582274E-15  -2.34964818311526E-18  -1.08233259415610E-10
      7.58690076649584E-11   0.00000000000000E+00   0.00000000000000E+00   0.00000000000000E+00   1.65811964267694E-20
     -4.97183377443449E-51  -2.44388575251818E-10  -2.44388575235237E-10  -6.95287916930542E-12   3.70610490861715E+00
      3.70610490857779E+00   0.00000000000000E+00   2.17778522955406E-11   3.71822068761296E-10  -1.08016292373015E-18
      3.93599919976673E-10  -1.47894437511625E-10
      1.30038805765784E-02
      0.00000000000000E+00   4.16346463516335E-12   0.00000000000000E+00  -1.12548356291780E-11  -3.03798107707582E-11
     -1.96835292795625E-21  -4.16346464019045E-11   2.57350754016040E-11   0.00000000000000E+00   0.00000000000000E+00
      0.00000000000000E+00  -1.08649993710936E-10  -4.86709256153708E-15  -2.35374881922122E-18  -1.08654863157247E-10
      7.57981002113792E-11   0.00000000000000E+00   0.00000000000000E+00   0.00000000000000E+00  -1.61800421888828E-20
     -5.80408146682978E-51  -2.45791331393187E-10  -2.45791331409367E-10  -7.11269208983000E-12   3.90116417297351E+00
      3.90116417293391E+00   0.00000000000000E+00   2.28171419356525E-11   3.73263700326914E-10  -1.07234065851961E-18
      3.96080841190226E-10  -1.47777795557216E-10
      1.32477046570238E-02
      0.00000000000000E+00   4.25371467916461E-12   0.00000000000000E+00  -1.15016499574142E-11  -3.10354968545674E-11
     -2.00886866370967E-21  -4.25371468139905E-11   2.57790482716006E-11   0.00000000000000E+00   0.00000000000000E+00
      0.00000000000000E+00  -1.09553483940583E-10  -4.91905033450866E-15  -2.37456676661794E-18  -1.09558405365484E-10
      7.57712878767412E-11   0.00000000000000E+00   0.00000000000000E+00   0.00000000000000E+00  -1.30170543305101E-19
     -7.76182437110684E-51  -2.50025575206382E-10  -2.50025575336553E-10  -7.17365434573744E-12   3.97431139710715E+00
      3.97431139706694E+00   0.00000000000000E+00   2.35020032879113E-11   3.78619125002312E-10  -1.05684816313111E-18
      4.02121127233375E-10  -1.47733993836668E-10
      1.34305727173579E-02
      0.00000000000000E+00   4.38797957913480E-12   0.00000000000000E+00  -1.18699142072777E-11  -3.20098815148974E-11
     -2.07037780268619E-21  -4.38797957242455E-11   2.58135843637169E-11   0.00000000000000E+00   0.00000000000000E+00
      0.00000000000000E+00  -1.11270747942936E-10  -5.00505988292600E-15  -2.41272669654763E-18  -1.11275755415545E-10
      7.57508627885794E-11   0.00000000000000E+00   0.00000000000000E+00   0.00000000000000E+00  -3.09213912261587E-19
     -8.37992412985311E-51  -2.57569602738139E-10  -2.57569603047353E-10  -7.22075559939907E-12   4.02917181520738E+00
      4.02917181516611E+00   0.00000000000000E+00   2.33817182239490E-11   3.89343437390384E-10  -1.03179829192334E-18
      4.12725154582535E-10  -1.47701003586960E-10
      1.35677237626085E-02
      0.00000000000000E+00   4.56440086633074E-12   0.00000000000000E+00  -1.23540412057706E-11  -3.32899674583248E-11
     -2.15190139663181E-21  -4.56440086662473E-11   2.58410630849739E-11   0.00000000000000E+00   0.00000000000000E+00
      0.00000000000000E+00  -1.13635827778779E-10  -5.12038600002097E-15  -2.46514714348777E-18  -1.13640950629926E-10
      7.57352178430515E-11   0.00000000000000E+00   0.00000000000000E+00   0.00000000000000E+00  -5.56550720100019E-19
     -9.02628935311362E-51  -2.67753565740711E-10  -2.67753566297262E-10  -7.25747828085665E-12   4.07031712878255E+00
      4.07031712873985E+00   0.00000000000000E+00   2.28776907768416E-11   4.04160835927545E-10  -9.97688627728193E-19
      4.27038525706698E-10  -1.47676114681232E-10
      1.37734503304844E-02
      0.00000000000000E+00   4.99924423250088E-12   0.00000000000000E+00  -1.35478006581187E-11  -3.64446417025966E-11
     -2.35352586212400E-21  -4.99924423630688E-11   2.58882312748232E-11   0.00000000000000E+00   0.00000000000000E+00
      0.00000000000000E+00  -1.19695484741604E-10  -5.41237519785604E-15  -2.60187820759296E-18  -1.19700899718680E-10
      7.57104973467637E-11   0.00000000000000E+00   0.00000000000000E+00   0.00000000000000E+00  -9.29994306918482E-19
     -9.29839694619758E-51  -2.93279798107737E-10  -2.93279799037731E-10  -7.31781372730362E-12   4.13203509914531E+00
      4.13203509909901E+00   0.00000000000000E+00   2.10401907846627E-11   4.41932951136088E-10  -9.11177905323340E-19
      4.62973141009572E-10  -1.47638226928346E-10
      1.39277452563913E-02
      0.00000000000000E+00   5.49446864712086E-12   0.00000000000000E+00  -1.49067714317290E-11  -4.00379150642763E-11
     -2.58348420529078E-21  -5.49446864985888E-11   2.59286942194514E-11   0.00000000000000E+00   0.00000000000000E+00
      0.00000000000000E+00  -1.26592476746552E-10  -5.74400193727312E-15  -2.75651173182918E-18  -1.26598223505001E-10
      7.56908872829824E-11   0.00000000000000E+00   0.00000000000000E+00   0.00000000000000E+00  -1.41164981340072E-18
     -1.05974530189811E-50  -3.22339844036507E-10  -3.22339845448157E-10  -7.36754912985252E-12   4.17832357691738E+00
      4.17832357686699E+00   0.00000000000000E+00   1.88002191136143E-11   4.85082537350757E-10  -8.11252076405704E-19
      5.03882755653119E-10  -1.47609344406645E-10
      1.40434664508214E-02
      0.00000000000000E+00   5.94834816665961E-12   0.00000000000000E+00  -1.61519021354980E-11  -4.33315795307670E-11
     -2.79418567231860E-21  -5.94834816690592E-11   2.59625475875650E-11   0.00000000000000E+00   0.00000000000000E+00
      0.00000000000000E+00  -1.32933512896248E-10  -6.04946012368291E-15  -2.90034462761592E-18  -1.32939565256716E-10
      7.56754421421502E-11   0.00000000000000E+00   0.00000000000000E+00   0.00000000000000E+00  -1.72733332216558E-18
     -1.18439926241224E-50  -3.49008872281872E-10  -3.49008874009205E-10  -7.40793685360640E-12   4.21303993524643E+00
      4.21303993519229E+00   0.00000000000000E+00   1.66236556370033E-11   5.24808265578068E-10  -7.18677445383772E-19
      5.41431920496394E-10  -1.47587364910172E-10
      1.42170482424667E-02
      0.00000000000000E+00   6.62754818886757E-12   0.00000000000000E+00  -1.80147466160906E-11  -4.82607352480562E-11
     -3.10865745285862E-21  -6.62754818672555E-11   2.60212279082276E-11   0.00000000000000E+00   0.00000000000000E+00
      0.00000000000000E+00  -1.42487449345204E-10  -6.50854075069604E-15  -3.11480660605731E-18  -1.42493961000761E-10
      7.56506075008711E-11   0.00000000000000E+00   0.00000000000000E+00   0.00000000000000E+00  -1.72685139261867E-18
     -1.22661964851102E-50  -3.89001197566063E-10  -3.89001199292914E-10  -7.47546037871592E-12   4.26511447274000E+00
      4.26511447268023E+00   0.00000000000000E+00   1.32256897433503E-11   5.84544952943343E-10  -5.78948029729318E-19