DF-ISE text

Info {
  version   = 1.0
  type      = xyplot
  datasets  = [
    "time"
    "source OuterVoltage" "source InnerVoltage" "source QuasiFermiPotential" "source DisplacementCurrent" "source eCurrent"
    "source hCurrent" "source TotalCurrent" "source Charge" "gate OuterVoltage" "gate InnerVoltage"
    "gate QuasiFermiPotential" "gate DisplacementCurrent" "gate eCurrent" "gate hCurrent" "gate TotalCurrent"
    "gate Charge" "bulk OuterVoltage" "bulk InnerVoltage" "bulk QuasiFermiPotential" "bulk DisplacementCurrent"
    "bulk eCurrent" "bulk hCurrent" "bulk TotalCurrent" "bulk Charge" "drain OuterVoltage"
    "drain InnerVoltage" "drain QuasiFermiPotential" "drain DisplacementCurrent" "drain eCurrent" "drain hCurrent"
    "drain TotalCurrent" "drain Charge" ]
  functions = [
    Time
    OuterVoltage InnerVoltage QuasiFermiPotential DisplacementCurrent eCurrent
    hCurrent TotalCurrent Charge OuterVoltage InnerVoltage
    QuasiFermiPotential DisplacementCurrent eCurrent hCurrent TotalCurrent
    Charge OuterVoltage InnerVoltage QuasiFermiPotential DisplacementCurrent
    eCurrent hCurrent TotalCurrent Charge OuterVoltage
    InnerVoltage QuasiFermiPotential DisplacementCurrent eCurrent hCurrent
    TotalCurrent Charge ]
}

Data {
      0.00000000000000E+00
      0.00000000000000E+00   0.00000000000000E+00   0.00000000000000E+00   0.00000000000000E+00  -1.11080678449582E-22
     -5.95071538718750E-27  -1.11086629164970E-22   2.34921384911501E-11   0.00000000000000E+00   0.00000000000000E+00
      0.00000000000000E+00   0.00000000000000E+00   1.63895415851152E-19  -3.85564010291026E-22   1.63509851840861E-19
      7.71985609722389E-11   0.00000000000000E+00   0.00000000000000E+00   0.00000000000000E+00   0.00000000000000E+00
      1.88387645548256E-64  -7.05949448596429E-23  -7.05949448596429E-23  -3.97177530069059E-12   0.00000000000000E+00
      0.00000000000000E+00   0.00000000000000E+00   0.00000000000000E+00  -1.06471905454572E-20  -2.67568100151074E-26
     -1.06472173022673E-20  -1.50076236196762E-10
      0.00000000000000E+00
      0.00000000000000E+00  -6.76696473335543E-26   0.00000000000000E+00   0.00000000000000E+00  -3.39583775394152E-20
     -3.27289011315055E-26  -3.39584102683164E-20   2.34921384911501E-11   0.00000000000000E+00   0.00000000000000E+00
      0.00000000000000E+00   0.00000000000000E+00   9.95577632084596E-20  -1.77978154931515E-21   9.77779816591445E-20
      7.71985609722389E-11   0.00000000000000E+00   0.00000000000000E+00   0.00000000000000E+00   0.00000000000000E+00
      2.38732619789600E-64  -7.05949448596429E-23  -7.05949448596429E-23  -3.97177530069059E-12   0.00000000000000E+00
     -9.79053695197869E-19   0.00000000000000E+00   0.00000000000000E+00   1.32193096394401E-17  -8.63014064532487E-26
      1.32193095531387E-17  -1.50076236196762E-10
      0.00000000000000E+00
      0.00000000000000E+00   8.08481863559855E-23   0.00000000000000E+00   0.00000000000000E+00  -9.90839968100827E-20
     -3.27293088671552E-26  -9.90840295393915E-20   2.34921384911501E-11   0.00000000000000E+00   0.00000000000000E+00
      0.00000000000000E+00   0.00000000000000E+00   9.95576630901419E-20  -1.77977137971938E-21   9.77778917104225E-20
      7.71985609722389E-11   0.00000000000000E+00   0.00000000000000E+00   0.00000000000000E+00   0.00000000000000E+00
      2.38732619789600E-64   6.35354503736786E-23   6.35354503736786E-23  -3.97177530069059E-12   0.00000000000000E+00
     -9.20389455452574E-19   0.00000000000000E+00   0.00000000000000E+00   1.24733211756715E-17  -5.11754324095068E-26
      1.24733211244960E-17  -1.50076236196762E-10
}
